TITLE = "delaundoMesh"
VARIABLES = "x", "y", "z"
ZONE N = 6316, E = 12338, DATAPACKING = POINT, ZONETYPE = FEQUADRILATERAL
-22.916670 0.000000 -10.000000
-20.833330 0.000000 -10.000000
-18.750000 0.000000 -10.000000
-16.666670 0.000000 -10.000000
-14.583330 0.000000 -10.000000
-12.500000 0.000000 -10.000000
-10.416670 0.000000 -10.000000
-8.333333 0.000000 -10.000000
-6.250000 0.000000 -10.000000
-4.166667 0.000000 -10.000000
-2.083333 0.000000 -10.000000
0.000000 0.000000 -10.000000
2.083333 0.000000 -10.000000
4.166667 0.000000 -10.000000
6.250000 0.000000 -10.000000
8.333333 0.000000 -10.000000
10.416670 0.000000 -10.000000
12.500000 0.000000 -10.000000
14.583330 0.000000 -10.000000
16.666670 0.000000 -10.000000
18.750000 0.000000 -10.000000
20.833330 0.000000 -10.000000
22.916670 0.000000 -10.000000
25.000000 0.000000 -10.000000
25.000000 0.000000 -9.166667
25.000000 0.000000 -8.333333
25.000000 0.000000 -7.500000
25.000000 0.000000 -6.666667
25.000000 0.000000 -5.833333
25.000000 0.000000 -5.000000
25.000000 0.000000 -4.166667
25.000000 0.000000 -3.333333
25.000000 0.000000 -2.500000
25.000000 0.000000 -1.666667
25.000000 0.000000 -0.833333
25.000000 0.000000 0.000000
25.000000 0.000000 0.833333
25.000000 0.000000 1.666667
25.000000 0.000000 2.500000
25.000000 0.000000 3.333333
25.000000 0.000000 4.166667
25.000000 0.000000 5.000000
25.000000 0.000000 5.833333
25.000000 0.000000 6.666667
25.000000 0.000000 7.500000
25.000000 0.000000 8.333333
25.000000 0.000000 9.166667
25.000000 0.000000 10.000000
22.916670 0.000000 10.000000
20.833330 0.000000 10.000000
18.750000 0.000000 10.000000
16.666670 0.000000 10.000000
14.583330 0.000000 10.000000
12.500000 0.000000 10.000000
10.416670 0.000000 10.000000
8.333333 0.000000 10.000000
6.250000 0.000000 10.000000
4.166667 0.000000 10.000000
2.083333 0.000000 10.000000
0.000000 0.000000 10.000000
-2.083333 0.000000 10.000000
-4.166667 0.000000 10.000000
-6.250000 0.000000 10.000000
-8.333333 0.000000 10.000000
-10.416670 0.000000 10.000000
-12.500000 0.000000 10.000000
-14.583330 0.000000 10.000000
-16.666670 0.000000 10.000000
-18.750000 0.000000 10.000000
-20.833330 0.000000 10.000000
-22.916670 0.000000 10.000000
-25.000000 0.000000 10.000000
-25.000000 0.000000 9.166667
-25.000000 0.000000 8.333333
-25.000000 0.000000 7.500000
-25.000000 0.000000 6.666667
-25.000000 0.000000 5.833333
-25.000000 0.000000 5.000000
-25.000000 0.000000 4.166667
-25.000000 0.000000 3.333333
-25.000000 0.000000 2.500000
-25.000000 0.000000 1.666667
-25.000000 0.000000 0.833333
-25.000000 0.000000 0.000000
-25.000000 0.000000 -0.833333
-25.000000 0.000000 -1.666667
-25.000000 0.000000 -2.500000
-25.000000 0.000000 -3.333333
-25.000000 0.000000 -4.166667
-25.000000 0.000000 -5.000000
-25.000000 0.000000 -5.833333
-25.000000 0.000000 -6.666667
-25.000000 0.000000 -7.500000
-25.000000 0.000000 -8.333333
-25.000000 0.000000 -9.166667
-25.000000 0.000000 -10.000000
-0.000372 0.000000 0.001050
-0.000686 0.000000 0.002226
-0.000919 0.000000 0.003535
-0.001046 0.000000 0.004983
-0.001035 0.000000 0.006570
-0.000857 0.000000 0.008295
-0.000492 0.000000 0.010152
0.000079 0.000000 0.012137
0.000873 0.000000 0.014247
0.001910 0.000000 0.016476
0.003202 0.000000 0.018823
0.004762 0.000000 0.021292
0.006609 0.000000 0.023882
0.008760 0.000000 0.026595
0.011231 0.000000 0.029438
0.014048 0.000000 0.032411
0.017231 0.000000 0.035521
0.020805 0.000000 0.038771
0.024799 0.000000 0.042164
0.029241 0.000000 0.045704
0.034163 0.000000 0.049392
0.039599 0.000000 0.053228
0.045583 0.000000 0.057211
0.052152 0.000000 0.061338
0.059343 0.000000 0.065603
0.067195 0.000000 0.069999
0.075747 0.000000 0.074513
0.085039 0.000000 0.079131
0.095108 0.000000 0.083833
0.105991 0.000000 0.088598
0.117723 0.000000 0.093396
0.130336 0.000000 0.098196
0.143856 0.000000 0.102961
0.158306 0.000000 0.107647
0.173703 0.000000 0.112208
0.190052 0.000000 0.116592
0.207355 0.000000 0.120744
0.225601 0.000000 0.124605
0.244767 0.000000 0.128114
0.264820 0.000000 0.131210
0.285716 0.000000 0.133833
0.307395 0.000000 0.135923
0.329788 0.000000 0.137427
0.352811 0.000000 0.138301
0.376371 0.000000 0.138492
0.400364 0.000000 0.137973
0.424688 0.000000 0.136880
0.449240 0.000000 0.135328
0.473916 0.000000 0.133362
0.498608 0.000000 0.130983
0.523208 0.000000 0.128214
0.547609 0.000000 0.125083
0.571709 0.000000 0.121619
0.595412 0.000000 0.117857
0.618628 0.000000 0.113834
0.641274 0.000000 0.109591
0.663277 0.000000 0.105168
0.684575 0.000000 0.100606
0.705113 0.000000 0.095945
0.724848 0.000000 0.091226
0.743748 0.000000 0.086484
0.761788 0.000000 0.081755
0.778954 0.000000 0.077070
0.795242 0.000000 0.072458
0.810652 0.000000 0.067943
0.825194 0.000000 0.063547
0.838882 0.000000 0.059289
0.851738 0.000000 0.055182
0.863784 0.000000 0.051238
0.875050 0.000000 0.047467
0.885566 0.000000 0.043873
0.895365 0.000000 0.040459
0.904480 0.000000 0.037228
0.912946 0.000000 0.034177
0.920799 0.000000 0.031306
0.928073 0.000000 0.028609
0.934803 0.000000 0.026083
0.941023 0.000000 0.023721
0.946765 0.000000 0.021517
0.952061 0.000000 0.019464
0.956942 0.000000 0.017555
0.961437 0.000000 0.015783
0.965573 0.000000 0.014141
0.969375 0.000000 0.012619
0.972870 0.000000 0.011213
0.976080 0.000000 0.009913
0.979026 0.000000 0.008714
0.981730 0.000000 0.007608
0.984209 0.000000 0.006590
0.986482 0.000000 0.005652
0.988565 0.000000 0.004790
0.990473 0.000000 0.003997
0.992221 0.000000 0.003269
0.993821 0.000000 0.002600
0.995285 0.000000 0.001986
0.996626 0.000000 0.001423
0.997852 0.000000 0.000907
0.998974 0.000000 0.000433
1.000000 0.000000 -0.000000
0.998953 0.000000 0.000127
0.997809 0.000000 0.000266
0.996558 0.000000 0.000417
0.995192 0.000000 0.000582
0.993699 0.000000 0.000762
0.992069 0.000000 0.000957
0.990289 0.000000 0.001169
0.988347 0.000000 0.001401
0.986227 0.000000 0.001651
0.983916 0.000000 0.001924
0.981395 0.000000 0.002219
0.978649 0.000000 0.002539
0.975657 0.000000 0.002886
0.972401 0.000000 0.003260
0.968857 0.000000 0.003664
0.965005 0.000000 0.004100
0.960818 0.000000 0.004569
0.956272 0.000000 0.005073
0.951340 0.000000 0.005613
0.945994 0.000000 0.006191
0.940204 0.000000 0.006809
0.933940 0.000000 0.007467
0.927170 0.000000 0.008165
0.919863 0.000000 0.008905
0.911986 0.000000 0.009686
0.903506 0.000000 0.010507
0.894392 0.000000 0.011366
0.884610 0.000000 0.012262
0.874130 0.000000 0.013191
0.862923 0.000000 0.014149
0.850963 0.000000 0.015131
0.838227 0.000000 0.016130
0.824693 0.000000 0.017139
0.810346 0.000000 0.018148
0.795177 0.000000 0.019147
0.779181 0.000000 0.020125
0.762362 0.000000 0.021069
0.744729 0.000000 0.021967
0.726301 0.000000 0.022804
0.707106 0.000000 0.023566
0.687180 0.000000 0.024239
0.666568 0.000000 0.024809
0.645326 0.000000 0.025265
0.623516 0.000000 0.025596
0.601211 0.000000 0.025793
0.578491 0.000000 0.025852
0.555441 0.000000 0.025768
0.532152 0.000000 0.025544
0.508719 0.000000 0.025183
0.485240 0.000000 0.024695
0.461813 0.000000 0.024087
0.438534 0.000000 0.023378
0.415496 0.000000 0.022590
0.392794 0.000000 0.021680
0.370519 0.000000 0.020524
0.348757 0.000000 0.019048
0.327579 0.000000 0.017324
0.307050 0.000000 0.015399
0.287221 0.000000 0.013318
0.268136 0.000000 0.011129
0.249828 0.000000 0.008877
0.232319 0.000000 0.006603
0.215625 0.000000 0.004345
0.199752 0.000000 0.002134
0.184701 0.000000 -0.000000
0.170464 0.000000 -0.002034
0.157028 0.000000 -0.003949
0.144377 0.000000 -0.005730
0.132489 0.000000 -0.007365
0.121339 0.000000 -0.008846
0.110902 0.000000 -0.010170
0.101148 0.000000 -0.011334
0.092048 0.000000 -0.012337
0.083571 0.000000 -0.013183
0.075686 0.000000 -0.013874
0.068361 0.000000 -0.014415
0.061567 0.000000 -0.014810
0.055274 0.000000 -0.015066
0.049453 0.000000 -0.015189
0.044075 0.000000 -0.015185
0.039116 0.000000 -0.015060
0.034548 0.000000 -0.014820
0.030350 0.000000 -0.014473
0.026499 0.000000 -0.014021
0.022976 0.000000 -0.013473
0.019761 0.000000 -0.012834
0.016838 0.000000 -0.012107
0.014194 0.000000 -0.011299
0.011814 0.000000 -0.010420
0.009689 0.000000 -0.009473
0.007807 0.000000 -0.008467
0.006157 0.000000 -0.007416
0.004730 0.000000 -0.006333
0.003514 0.000000 -0.005231
0.002495 0.000000 -0.004125
0.001656 0.000000 -0.003036
0.000973 0.000000 -0.001977
0.000427 0.000000 -0.000962
0.000000 0.000000 0.000000
-0.000636 0.000000 0.000968
-0.000955 0.000000 0.002166
-0.001193 0.000000 0.003499
-0.001321 0.000000 0.004972
-0.001310 0.000000 0.006585
-0.001130 0.000000 0.008336
-0.000760 0.000000 0.010217
-0.000183 0.000000 0.012224
0.000619 0.000000 0.014353
0.001664 0.000000 0.016600
0.002965 0.000000 0.018964
0.004533 0.000000 0.021446
0.006389 0.000000 0.024047
0.008548 0.000000 0.026771
0.011027 0.000000 0.029623
0.013851 0.000000 0.032605
0.017041 0.000000 0.035721
0.020623 0.000000 0.038978
0.024624 0.000000 0.042377
0.029072 0.000000 0.045922
0.034001 0.000000 0.049614
0.039443 0.000000 0.053455
0.045433 0.000000 0.057442
0.052008 0.000000 0.061573
0.059205 0.000000 0.065842
0.067063 0.000000 0.070241
0.075622 0.000000 0.074758
0.084919 0.000000 0.079379
0.094994 0.000000 0.084084
0.105884 0.000000 0.088851
0.117622 0.000000 0.093653
0.130241 0.000000 0.098455
0.143768 0.000000 0.103222
0.158225 0.000000 0.107910
0.173628 0.000000 0.112473
0.189985 0.000000 0.116859
0.207295 0.000000 0.121013
0.225547 0.000000 0.124875
0.244721 0.000000 0.128386
0.264782 0.000000 0.131483
0.285685 0.000000 0.134107
0.307373 0.000000 0.136198
0.329773 0.000000 0.137702
0.352805 0.000000 0.138576
0.376373 0.000000 0.138768
0.400374 0.000000 0.138249
0.424703 0.000000 0.137156
0.449260 0.000000 0.135603
0.473941 0.000000 0.133636
0.498637 0.000000 0.131257
0.523240 0.000000 0.128488
0.547646 0.000000 0.125356
0.571750 0.000000 0.121891
0.595457 0.000000 0.118128
0.618677 0.000000 0.114105
0.641326 0.000000 0.109862
0.663333 0.000000 0.105438
0.684634 0.000000 0.100875
0.705175 0.000000 0.096214
0.724914 0.000000 0.091494
0.743816 0.000000 0.086751
0.761859 0.000000 0.082021
0.779028 0.000000 0.077336
0.795318 0.000000 0.072722
0.810731 0.000000 0.068207
0.825275 0.000000 0.063811
0.838965 0.000000 0.059552
0.851823 0.000000 0.055444
0.863871 0.000000 0.051500
0.875139 0.000000 0.047728
0.885656 0.000000 0.044133
0.895456 0.000000 0.040719
0.904573 0.000000 0.037487
0.913040 0.000000 0.034436
0.920894 0.000000 0.031564
0.928169 0.000000 0.028867
0.934900 0.000000 0.026340
0.941121 0.000000 0.023978
0.946864 0.000000 0.021774
0.952161 0.000000 0.019721
0.957043 0.000000 0.017812
0.961538 0.000000 0.016040
0.965675 0.000000 0.014397
0.969478 0.000000 0.012875
0.972973 0.000000 0.011468
0.976183 0.000000 0.010169
0.979130 0.000000 0.008969
0.981834 0.000000 0.007863
0.984314 0.000000 0.006845
0.986587 0.000000 0.005907
0.988670 0.000000 0.005044
0.990579 0.000000 0.004252
0.992327 0.000000 0.003523
0.993927 0.000000 0.002854
0.995392 0.000000 0.002240
0.996733 0.000000 0.001677
0.997959 0.000000 0.001161
0.999081 0.000000 0.000687
1.000107 0.000000 0.000254
0.999967 0.000000 -0.000274
0.998920 0.000000 -0.000146
0.997776 0.000000 -0.000008
0.996525 0.000000 0.000144
0.995159 0.000000 0.000308
0.993667 0.000000 0.000488
0.992036 0.000000 0.000683
0.990257 0.000000 0.000896
0.988314 0.000000 0.001127
0.986195 0.000000 0.001378
0.983884 0.000000 0.001650
0.981363 0.000000 0.001946
0.978617 0.000000 0.002266
0.975626 0.000000 0.002612
0.972369 0.000000 0.002986
0.968826 0.000000 0.003390
0.964974 0.000000 0.003826
0.960787 0.000000 0.004295
0.956242 0.000000 0.004799
0.951310 0.000000 0.005339
0.945964 0.000000 0.005917
0.940175 0.000000 0.006535
0.933911 0.000000 0.007193
0.927142 0.000000 0.007891
0.919836 0.000000 0.008631
0.911959 0.000000 0.009411
0.903480 0.000000 0.010232
0.894366 0.000000 0.011092
0.884585 0.000000 0.011988
0.874106 0.000000 0.012917
0.862900 0.000000 0.013875
0.850942 0.000000 0.014856
0.838206 0.000000 0.015855
0.824673 0.000000 0.016864
0.810327 0.000000 0.017873
0.795160 0.000000 0.018872
0.779165 0.000000 0.019850
0.762347 0.000000 0.020794
0.744716 0.000000 0.021692
0.726290 0.000000 0.022529
0.707096 0.000000 0.023290
0.687172 0.000000 0.023963
0.666562 0.000000 0.024533
0.645321 0.000000 0.024989
0.623513 0.000000 0.025320
0.601210 0.000000 0.025518
0.578491 0.000000 0.025576
0.555442 0.000000 0.025493
0.532155 0.000000 0.025269
0.508724 0.000000 0.024908
0.485247 0.000000 0.024419
0.461820 0.000000 0.023812
0.438542 0.000000 0.023102
0.415507 0.000000 0.022315
0.392807 0.000000 0.021405
0.370535 0.000000 0.020249
0.348777 0.000000 0.018773
0.327603 0.000000 0.017049
0.307077 0.000000 0.015125
0.287251 0.000000 0.013044
0.268169 0.000000 0.010855
0.249862 0.000000 0.008604
0.232355 0.000000 0.006330
0.215662 0.000000 0.004071
0.199791 0.000000 0.001861
0.184740 0.000000 -0.000273
0.170503 0.000000 -0.002307
0.157067 0.000000 -0.004222
0.144415 0.000000 -0.006003
0.132525 0.000000 -0.007638
0.121375 0.000000 -0.009120
0.110936 0.000000 -0.010443
0.101180 0.000000 -0.011608
0.092077 0.000000 -0.012611
0.083597 0.000000 -0.013458
0.075708 0.000000 -0.014149
0.068379 0.000000 -0.014690
0.061581 0.000000 -0.015085
0.055283 0.000000 -0.015342
0.049456 0.000000 -0.015465
0.044072 0.000000 -0.015460
0.039105 0.000000 -0.015336
0.034530 0.000000 -0.015095
0.030323 0.000000 -0.014747
0.026462 0.000000 -0.014295
0.022927 0.000000 -0.013744
0.019700 0.000000 -0.013103
0.016765 0.000000 -0.012372
0.014106 0.000000 -0.011561
0.011710 0.000000 -0.010676
0.009568 0.000000 -0.009720
0.007668 0.000000 -0.008705
0.006000 0.000000 -0.007643
0.004553 0.000000 -0.006546
0.003320 0.000000 -0.005426
0.002285 0.000000 -0.004303
0.001430 0.000000 -0.003195
0.000736 0.000000 -0.002117
0.000180 0.000000 -0.001084
-0.000256 0.000000 -0.000102
-0.001058 0.000000 0.000855
-0.001379 0.000000 0.002072
-0.001623 0.000000 0.003442
-0.001755 0.000000 0.004955
-0.001744 0.000000 0.006609
-0.001560 0.000000 0.008400
-0.001182 0.000000 0.010319
-0.000594 0.000000 0.012360
0.000219 0.000000 0.014521
0.001277 0.000000 0.016796
0.002591 0.000000 0.019184
0.004174 0.000000 0.021687
0.006043 0.000000 0.024308
0.008214 0.000000 0.027048
0.010706 0.000000 0.029915
0.013541 0.000000 0.032910
0.016743 0.000000 0.036038
0.020336 0.000000 0.039305
0.024348 0.000000 0.042712
0.028807 0.000000 0.046265
0.033746 0.000000 0.049965
0.039198 0.000000 0.053812
0.045198 0.000000 0.057806
0.051782 0.000000 0.061943
0.058988 0.000000 0.066218
0.066856 0.000000 0.070622
0.075424 0.000000 0.075144
0.084731 0.000000 0.079769
0.094816 0.000000 0.084479
0.105715 0.000000 0.089250
0.117463 0.000000 0.094056
0.130092 0.000000 0.098862
0.143629 0.000000 0.103632
0.158096 0.000000 0.108324
0.173510 0.000000 0.112890
0.189878 0.000000 0.117279
0.207199 0.000000 0.121435
0.225463 0.000000 0.125301
0.244649 0.000000 0.128813
0.264722 0.000000 0.131912
0.285638 0.000000 0.134538
0.307337 0.000000 0.136630
0.329751 0.000000 0.138134
0.352795 0.000000 0.139010
0.376376 0.000000 0.139201
0.400388 0.000000 0.138681
0.424726 0.000000 0.137588
0.449290 0.000000 0.136035
0.473979 0.000000 0.134068
0.498682 0.000000 0.131687
0.523292 0.000000 0.128918
0.547704 0.000000 0.125785
0.571815 0.000000 0.122319
0.595528 0.000000 0.118555
0.618753 0.000000 0.114531
0.641409 0.000000 0.110287
0.663421 0.000000 0.105861
0.684727 0.000000 0.101298
0.705273 0.000000 0.096636
0.725017 0.000000 0.091914
0.743924 0.000000 0.087170
0.761971 0.000000 0.082440
0.779144 0.000000 0.077753
0.795438 0.000000 0.073138
0.810854 0.000000 0.068622
0.825402 0.000000 0.064225
0.839095 0.000000 0.059964
0.851956 0.000000 0.055856
0.864007 0.000000 0.051911
0.875277 0.000000 0.048138
0.885797 0.000000 0.044542
0.895600 0.000000 0.041128
0.904718 0.000000 0.037895
0.913188 0.000000 0.034843
0.921044 0.000000 0.031970
0.928321 0.000000 0.029273
0.935053 0.000000 0.026745
0.941275 0.000000 0.024382
0.947020 0.000000 0.022178
0.952318 0.000000 0.020124
0.957201 0.000000 0.018215
0.961698 0.000000 0.016442
0.965835 0.000000 0.014799
0.969639 0.000000 0.013277
0.973135 0.000000 0.011870
0.976346 0.000000 0.010570
0.979294 0.000000 0.009370
0.981998 0.000000 0.008264
0.984479 0.000000 0.007245
0.986752 0.000000 0.006307
0.988836 0.000000 0.005444
0.990745 0.000000 0.004651
0.992494 0.000000 0.003922
0.994094 0.000000 0.003253
0.995560 0.000000 0.002639
0.996900 0.000000 0.002076
0.998127 0.000000 0.001559
0.999249 0.000000 0.001086
1.000276 0.000000 0.000653
0.999915 0.000000 -0.000703
0.998868 0.000000 -0.000576
0.997724 0.000000 -0.000437
0.996474 0.000000 -0.000286
0.995107 0.000000 -0.000121
0.993615 0.000000 0.000058
0.991985 0.000000 0.000254
0.990206 0.000000 0.000466
0.988263 0.000000 0.000697
0.986144 0.000000 0.000948
0.983833 0.000000 0.001220
0.981313 0.000000 0.001516
0.978567 0.000000 0.001836
0.975576 0.000000 0.002182
0.972320 0.000000 0.002556
0.968777 0.000000 0.002960
0.964925 0.000000 0.003396
0.960739 0.000000 0.003865
0.956194 0.000000 0.004369
0.951263 0.000000 0.004909
0.945918 0.000000 0.005487
0.940129 0.000000 0.006105
0.933866 0.000000 0.006762
0.927098 0.000000 0.007461
0.919793 0.000000 0.008200
0.911917 0.000000 0.008981
0.903439 0.000000 0.009802
0.894326 0.000000 0.010661
0.884546 0.000000 0.011557
0.874068 0.000000 0.012486
0.862864 0.000000 0.013444
0.850907 0.000000 0.014425
0.838173 0.000000 0.015424
0.824641 0.000000 0.016432
0.810298 0.000000 0.017441
0.795132 0.000000 0.018440
0.779140 0.000000 0.019418
0.762324 0.000000 0.020362
0.744695 0.000000 0.021260
0.726271 0.000000 0.022096
0.707080 0.000000 0.022858
0.687158 0.000000 0.023531
0.666551 0.000000 0.024101
0.645313 0.000000 0.024557
0.623508 0.000000 0.024888
0.601207 0.000000 0.025085
0.578491 0.000000 0.025144
0.555445 0.000000 0.025060
0.532160 0.000000 0.024836
0.508732 0.000000 0.024475
0.485257 0.000000 0.023987
0.461833 0.000000 0.023379
0.438556 0.000000 0.022670
0.415523 0.000000 0.021882
0.392827 0.000000 0.020973
0.370561 0.000000 0.019817
0.348809 0.000000 0.018342
0.327641 0.000000 0.016619
0.307120 0.000000 0.014694
0.287299 0.000000 0.012614
0.268220 0.000000 0.010426
0.249916 0.000000 0.008174
0.232412 0.000000 0.005901
0.215721 0.000000 0.003643
0.199851 0.000000 0.001432
0.184801 0.000000 -0.000702
0.170564 0.000000 -0.002736
0.157127 0.000000 -0.004651
0.144474 0.000000 -0.006431
0.132583 0.000000 -0.008066
0.121430 0.000000 -0.009549
0.110989 0.000000 -0.010873
0.101229 0.000000 -0.012038
0.092122 0.000000 -0.013042
0.083637 0.000000 -0.013889
0.075743 0.000000 -0.014580
0.068408 0.000000 -0.015122
0.061602 0.000000 -0.015518
0.055296 0.000000 -0.015774
0.049460 0.000000 -0.015898
0.044066 0.000000 -0.015894
0.039088 0.000000 -0.015769
0.034500 0.000000 -0.015528
0.030280 0.000000 -0.015179
0.026403 0.000000 -0.014724
0.022852 0.000000 -0.014170
0.019606 0.000000 -0.013525
0.016649 0.000000 -0.012790
0.013968 0.000000 -0.011972
0.011546 0.000000 -0.011078
0.009377 0.000000 -0.010111
0.007449 0.000000 -0.009079
0.005752 0.000000 -0.007998
0.004276 0.000000 -0.006879
0.003014 0.000000 -0.005735
0.001953 0.000000 -0.004583
0.001076 0.000000 -0.003444
0.000362 0.000000 -0.002338
-0.000211 0.000000 -0.001275
-0.000656 0.000000 -0.000280
-0.001569 0.000000 0.000720
-0.001891 0.000000 0.001959
-0.002140 0.000000 0.003374
-0.002275 0.000000 0.004934
-0.002266 0.000000 0.006638
-0.002077 0.000000 0.008477
-0.001689 0.000000 0.010441
-0.001088 0.000000 0.012524
-0.000262 0.000000 0.014723
0.000811 0.000000 0.017033
0.002142 0.000000 0.019449
0.003742 0.000000 0.021978
0.005626 0.000000 0.024621
0.007813 0.000000 0.027381
0.010318 0.000000 0.030266
0.013167 0.000000 0.033278
0.016382 0.000000 0.036420
0.019990 0.000000 0.039698
0.024016 0.000000 0.043115
0.028488 0.000000 0.046678
0.033440 0.000000 0.050386
0.038904 0.000000 0.054241
0.044915 0.000000 0.058243
0.051510 0.000000 0.062388
0.058728 0.000000 0.066671
0.066607 0.000000 0.071081
0.075187 0.000000 0.075608
0.084505 0.000000 0.080238
0.094601 0.000000 0.084953
0.105511 0.000000 0.089730
0.117271 0.000000 0.094540
0.129913 0.000000 0.099350
0.143462 0.000000 0.104125
0.157942 0.000000 0.108822
0.173369 0.000000 0.113392
0.189750 0.000000 0.117783
0.207084 0.000000 0.121944
0.225362 0.000000 0.125812
0.244562 0.000000 0.129326
0.264650 0.000000 0.132428
0.285580 0.000000 0.135057
0.307295 0.000000 0.137151
0.329723 0.000000 0.138654
0.352782 0.000000 0.139530
0.376379 0.000000 0.139721
0.400405 0.000000 0.139202
0.424754 0.000000 0.138108
0.449328 0.000000 0.136554
0.474024 0.000000 0.134586
0.498736 0.000000 0.132205
0.523354 0.000000 0.129435
0.547774 0.000000 0.126301
0.571893 0.000000 0.122834
0.595613 0.000000 0.119069
0.618846 0.000000 0.115044
0.641508 0.000000 0.110798
0.663527 0.000000 0.106371
0.684839 0.000000 0.101806
0.705392 0.000000 0.097143
0.725140 0.000000 0.092419
0.744053 0.000000 0.087674
0.762105 0.000000 0.082943
0.779284 0.000000 0.078254
0.795582 0.000000 0.073638
0.811002 0.000000 0.069121
0.825554 0.000000 0.064722
0.839252 0.000000 0.060461
0.852116 0.000000 0.056351
0.864171 0.000000 0.052405
0.875444 0.000000 0.048631
0.885967 0.000000 0.045034
0.895772 0.000000 0.041619
0.904893 0.000000 0.038385
0.913365 0.000000 0.035332
0.921223 0.000000 0.032459
0.928503 0.000000 0.029761
0.935237 0.000000 0.027232
0.941461 0.000000 0.024869
0.947207 0.000000 0.022663
0.952507 0.000000 0.020609
0.957391 0.000000 0.018699
0.961889 0.000000 0.016926
0.966028 0.000000 0.015282
0.969833 0.000000 0.013760
0.973330 0.000000 0.012352
0.976542 0.000000 0.011052
0.979490 0.000000 0.009852
0.982196 0.000000 0.008745
0.984677 0.000000 0.007726
0.986951 0.000000 0.006788
0.989035 0.000000 0.005925
0.990945 0.000000 0.005131
0.992694 0.000000 0.004403
0.994295 0.000000 0.003733
0.995761 0.000000 0.003119
0.997102 0.000000 0.002555
0.998329 0.000000 0.002039
0.999452 0.000000 0.001565
1.000478 0.000000 0.001132
0.999852 0.000000 -0.001220
0.998805 0.000000 -0.001093
0.997661 0.000000 -0.000954
0.996411 0.000000 -0.000803
0.995045 0.000000 -0.000638
0.993553 0.000000 -0.000458
0.991923 0.000000 -0.000263
0.990144 0.000000 -0.000050
0.988202 0.000000 0.000180
0.986083 0.000000 0.000431
0.983772 0.000000 0.000704
0.981253 0.000000 0.000999
0.978507 0.000000 0.001319
0.975517 0.000000 0.001665
0.972261 0.000000 0.002040
0.968719 0.000000 0.002444
0.964867 0.000000 0.002879
0.960682 0.000000 0.003348
0.956137 0.000000 0.003852
0.951207 0.000000 0.004392
0.945863 0.000000 0.004970
0.940074 0.000000 0.005587
0.933812 0.000000 0.006245
0.927045 0.000000 0.006943
0.919741 0.000000 0.007683
0.911866 0.000000 0.008463
0.903389 0.000000 0.009284
0.894278 0.000000 0.010143
0.884499 0.000000 0.011039
0.874023 0.000000 0.011968
0.862821 0.000000 0.012926
0.850865 0.000000 0.013907
0.838133 0.000000 0.014905
0.824604 0.000000 0.015913
0.810263 0.000000 0.016922
0.795099 0.000000 0.017921
0.779110 0.000000 0.018898
0.762296 0.000000 0.019843
0.744670 0.000000 0.020740
0.726249 0.000000 0.021577
0.707061 0.000000 0.022338
0.687142 0.000000 0.023011
0.666538 0.000000 0.023581
0.645303 0.000000 0.024036
0.623501 0.000000 0.024368
0.601204 0.000000 0.024565
0.578491 0.000000 0.024624
0.555449 0.000000 0.024540
0.532167 0.000000 0.024316
0.508741 0.000000 0.023955
0.485269 0.000000 0.023467
0.461847 0.000000 0.022859
0.438573 0.000000 0.022150
0.415542 0.000000 0.021362
0.392850 0.000000 0.020453
0.370592 0.000000 0.019298
0.348848 0.000000 0.017823
0.327686 0.000000 0.016101
0.307171 0.000000 0.014176
0.287355 0.000000 0.012097
0.268281 0.000000 0.009909
0.249982 0.000000 0.007658
0.232480 0.000000 0.005385
0.215792 0.000000 0.003128
0.199924 0.000000 0.000917
0.184874 0.000000 -0.001217
0.170637 0.000000 -0.003251
0.157200 0.000000 -0.005166
0.144546 0.000000 -0.006947
0.132653 0.000000 -0.008582
0.121497 0.000000 -0.010065
0.111052 0.000000 -0.011390
0.101289 0.000000 -0.012555
0.092177 0.000000 -0.013561
0.083686 0.000000 -0.014408
0.075785 0.000000 -0.015100
0.068442 0.000000 -0.015641
0.061628 0.000000 -0.016037
0.055312 0.000000 -0.016295
0.049465 0.000000 -0.016418
0.044060 0.000000 -0.016415
0.039068 0.000000 -0.016291
0.034465 0.000000 -0.016050
0.030228 0.000000 -0.015699
0.026333 0.000000 -0.015241
0.022761 0.000000 -0.014683
0.019492 0.000000 -0.014033
0.016510 0.000000 -0.013292
0.013801 0.000000 -0.012467
0.011349 0.000000 -0.011563
0.009146 0.000000 -0.010581
0.007185 0.000000 -0.009530
0.005455 0.000000 -0.008426
0.003943 0.000000 -0.007281
0.002646 0.000000 -0.006106
0.001554 0.000000 -0.004919
0.000651 0.000000 -0.003745
-0.000087 0.000000 -0.002603
-0.000681 0.000000 -0.001506
-0.001138 0.000000 -0.000495
-0.002162 0.000000 0.000566
-0.002483 0.000000 0.001830
-0.002738 0.000000 0.003295
-0.002877 0.000000 0.004909
-0.002871 0.000000 0.006670
-0.002677 0.000000 0.008567
-0.002276 0.000000 0.010584
-0.001660 0.000000 0.012714
-0.000818 0.000000 0.014957
0.000272 0.000000 0.017306
0.001623 0.000000 0.019756
0.003242 0.000000 0.022314
0.005145 0.000000 0.024983
0.007348 0.000000 0.027767
0.009870 0.000000 0.030673
0.012734 0.000000 0.033704
0.015965 0.000000 0.036864
0.019589 0.000000 0.040155
0.023632 0.000000 0.043583
0.028120 0.000000 0.047155
0.033086 0.000000 0.050873
0.038564 0.000000 0.054737
0.044588 0.000000 0.058749
0.051196 0.000000 0.062903
0.058426 0.000000 0.067194
0.066318 0.000000 0.071612
0.074912 0.000000 0.076144
0.084244 0.000000 0.080780
0.094353 0.000000 0.085501
0.105276 0.000000 0.090285
0.117050 0.000000 0.095101
0.129706 0.000000 0.099915
0.143269 0.000000 0.104695
0.157763 0.000000 0.109398
0.173205 0.000000 0.113972
0.189602 0.000000 0.118366
0.206952 0.000000 0.122531
0.225246 0.000000 0.126404
0.244462 0.000000 0.129920
0.264566 0.000000 0.133024
0.285513 0.000000 0.135657
0.307246 0.000000 0.137753
0.329692 0.000000 0.139256
0.352769 0.000000 0.140132
0.376383 0.000000 0.140324
0.400425 0.000000 0.139803
0.424787 0.000000 0.138709
0.449371 0.000000 0.137155
0.474077 0.000000 0.135186
0.498798 0.000000 0.132803
0.523426 0.000000 0.130032
0.547855 0.000000 0.126897
0.571983 0.000000 0.123429
0.595712 0.000000 0.119663
0.618953 0.000000 0.115636
0.641623 0.000000 0.111389
0.663649 0.000000 0.106960
0.684969 0.000000 0.102393
0.705528 0.000000 0.097729
0.725284 0.000000 0.093004
0.744202 0.000000 0.088257
0.762261 0.000000 0.083524
0.779445 0.000000 0.078834
0.795748 0.000000 0.074216
0.811174 0.000000 0.069697
0.825731 0.000000 0.065298
0.839433 0.000000 0.061035
0.852301 0.000000 0.056923
0.864360 0.000000 0.052976
0.875637 0.000000 0.049201
0.886163 0.000000 0.045603
0.895972 0.000000 0.042186
0.905096 0.000000 0.038951
0.913570 0.000000 0.035898
0.921431 0.000000 0.033023
0.928713 0.000000 0.030324
0.935450 0.000000 0.027795
0.941675 0.000000 0.025431
0.947423 0.000000 0.023224
0.952725 0.000000 0.021169
0.957611 0.000000 0.019259
0.962110 0.000000 0.017485
0.966250 0.000000 0.015841
0.970057 0.000000 0.014318
0.973555 0.000000 0.012910
0.976768 0.000000 0.011609
0.979718 0.000000 0.010409
0.982424 0.000000 0.009302
0.984906 0.000000 0.008282
0.987181 0.000000 0.007344
0.989266 0.000000 0.006480
0.991176 0.000000 0.005687
0.992926 0.000000 0.004957
0.994527 0.000000 0.004288
0.995993 0.000000 0.003673
0.997335 0.000000 0.003110
0.998563 0.000000 0.002593
0.999686 0.000000 0.002119
1.000712 0.000000 0.001686
0.999779 0.000000 -0.001817
0.998733 0.000000 -0.001690
0.997589 0.000000 -0.001551
0.996339 0.000000 -0.001400
0.994973 0.000000 -0.001235
0.993481 0.000000 -0.001055
0.991852 0.000000 -0.000860
0.990073 0.000000 -0.000648
0.988131 0.000000 -0.000417
0.986013 0.000000 -0.000166
0.983702 0.000000 0.000107
0.981183 0.000000 0.000402
0.978438 0.000000 0.000722
0.975448 0.000000 0.001068
0.972193 0.000000 0.001442
0.968651 0.000000 0.001846
0.964800 0.000000 0.002282
0.960615 0.000000 0.002751
0.956072 0.000000 0.003255
0.951142 0.000000 0.003795
0.945798 0.000000 0.004373
0.940011 0.000000 0.004990
0.933750 0.000000 0.005647
0.926984 0.000000 0.006345
0.919681 0.000000 0.007084
0.911808 0.000000 0.007865
0.903332 0.000000 0.008685
0.894222 0.000000 0.009544
0.884445 0.000000 0.010440
0.873971 0.000000 0.011369
0.862771 0.000000 0.012327
0.850817 0.000000 0.013308
0.838087 0.000000 0.014306
0.824560 0.000000 0.015314
0.810222 0.000000 0.016322
0.795061 0.000000 0.017321
0.779074 0.000000 0.018298
0.762264 0.000000 0.019242
0.744641 0.000000 0.020140
0.726224 0.000000 0.020976
0.707039 0.000000 0.021737
0.687124 0.000000 0.022410
0.666523 0.000000 0.022980
0.645292 0.000000 0.023435
0.623494 0.000000 0.023767
0.601201 0.000000 0.023965
0.578492 0.000000 0.024023
0.555453 0.000000 0.023939
0.532174 0.000000 0.023714
0.508752 0.000000 0.023354
0.485283 0.000000 0.022865
0.461864 0.000000 0.022258
0.438593 0.000000 0.021549
0.415564 0.000000 0.020762
0.392878 0.000000 0.019852
0.370628 0.000000 0.018697
0.348893 0.000000 0.017224
0.327739 0.000000 0.015502
0.307231 0.000000 0.013578
0.287421 0.000000 0.011499
0.268352 0.000000 0.009313
0.250057 0.000000 0.007062
0.232559 0.000000 0.004790
0.215874 0.000000 0.002532
0.200007 0.000000 0.000322
0.184959 0.000000 -0.001812
0.170722 0.000000 -0.003846
0.157285 0.000000 -0.005761
0.144629 0.000000 -0.007542
0.132734 0.000000 -0.009178
0.121575 0.000000 -0.010661
0.111126 0.000000 -0.011987
0.101357 0.000000 -0.013154
0.092240 0.000000 -0.014161
0.083742 0.000000 -0.015009
0.075833 0.000000 -0.015700
0.068482 0.000000 -0.016242
0.061658 0.000000 -0.016638
0.055331 0.000000 -0.016896
0.049471 0.000000 -0.017020
0.044052 0.000000 -0.017018
0.039044 0.000000 -0.016896
0.034424 0.000000 -0.016654
0.030167 0.000000 -0.016300
0.026251 0.000000 -0.015838
0.022656 0.000000 -0.015276
0.019361 0.000000 -0.014620
0.016350 0.000000 -0.013873
0.013608 0.000000 -0.013040
0.011120 0.000000 -0.012126
0.008880 0.000000 -0.011125
0.006880 0.000000 -0.010050
0.005111 0.000000 -0.008920
0.003557 0.000000 -0.007746
0.002220 0.000000 -0.006535
0.001092 0.000000 -0.005308
0.000159 0.000000 -0.004092
-0.000606 0.000000 -0.002911
-0.001224 0.000000 -0.001776